
                        S T E P       1


                                INCREMENT     1


 displacements (vx,vy,vz) for set NTIP and time  0.1000000E+01

        18  2.005748E-04 -4.840591E-07  8.844432E-06
