
                        S T E P       1


                                INCREMENT     1


 displacements (vx,vy,vz) for set NTIP and time  0.1000000E+01

        18  1.755030E-04 -4.235518E-07  7.738880E-06
